# Time  "mixture_fraction"  "velocity_:0"  "velocity_:1"  "velocity_:2"  "Points:0"  "Points:1"  "Points:2"
81.317  1  0  0  20  0  0  0
81.317  1  -1.8124e-09  -3.7659e-09  19.998  0  0  0.05
81.317  1  4.0562e-08  3.6645e-09  19.996  0  0  0.1
81.317  1  9.5046e-08  7.9946e-10  19.992  0  0  0.15
81.317  1  1.6617e-07  -4.7847e-10  19.985  0  0  0.2
81.317  1  2.3386e-07  1.844e-09  19.977  0  0  0.25
81.317  1  2.9603e-07  3.8907e-09  19.967  0  0  0.3
81.317  1  3.5434e-07  -1.9316e-09  19.956  0  0  0.35
81.317  1  4.0163e-07  -9.7385e-10  19.945  0  0  0.4
81.317  0.99999  4.4329e-07  2.6066e-09  19.933  0  0  0.45
81.317  0.99998  4.5956e-07  3.9528e-09  19.922  0  0  0.5
81.317  0.99997  4.7489e-07  4.8678e-09  19.91  0  0  0.55
81.317  0.99993  4.8699e-07  4.3023e-09  19.898  0  0  0.6
81.317  0.99989  4.9749e-07  3.1528e-09  19.887  0  0  0.65
81.317  0.99982  5.0293e-07  1.6452e-10  19.875  0  0  0.7
81.317  0.99974  5.0806e-07  -2.8156e-09  19.864  0  0  0.75
81.317  0.9996  5.0956e-07  -5.7005e-09  19.852  0  0  0.8
81.317  0.99945  5.1107e-07  -8.5854e-09  19.84  0  0  0.85
81.317  0.99922  5.1551e-07  -9.5965e-09  19.827  0  0  0.9
81.317  0.99896  5.2153e-07  -9.6032e-09  19.812  0  0  0.95
81.317  0.99869  5.2755e-07  -9.6099e-09  19.798  0  0  1
81.317  0.99826  5.409e-07  -8.2333e-09  19.779  0  0  1.05
81.317  0.99782  5.5426e-07  -6.8555e-09  19.761  0  0  1.1
81.317  0.99736  5.6665e-07  -5.4429e-09  19.741  0  0  1.15
81.317  0.9967  5.7085e-07  -3.7337e-09  19.716  0  0  1.2
81.317  0.99604  5.7505e-07  -2.0244e-09  19.691  0  0  1.25
81.317  0.99538  5.7925e-07  -3.1519e-10  19.666  0  0  1.3
81.317  0.99446  5.7713e-07  -6.2141e-10  19.634  0  0  1.35
81.317  0.99353  5.7467e-07  -1.0363e-09  19.602  0  0  1.4
81.317  0.99261  5.722e-07  -1.4511e-09  19.57  0  0  1.45
81.317  0.99151  5.6966e-07  -1.9591e-09  19.534  0  0  1.5
81.317  0.99027  5.6703e-07  -2.5563e-09  19.494  0  0  1.55
81.317  0.98902  5.644e-07  -3.1535e-09  19.454  0  0  1.6
81.317  0.98778  5.6178e-07  -3.7507e-09  19.414  0  0  1.65
81.317  0.98632  5.6157e-07  -3.3402e-09  19.369  0  0  1.7
81.317  0.98474  5.6267e-07  -2.3849e-09  19.321  0  0  1.75
81.317  0.98316  5.6377e-07  -1.4296e-09  19.273  0  0  1.8
81.317  0.98157  5.6487e-07  -4.7427e-10  19.225  0  0  1.85
81.317  0.97985  5.6412e-07  -1.428e-09  19.174  0  0  1.9
81.317  0.97793  5.6092e-07  -4.8946e-09  19.119  0  0  1.95
81.317  0.97602  5.5773e-07  -8.3612e-09  19.064  0  0  2
81.317  0.9741  5.5453e-07  -1.1828e-08  19.009  0  0  2.05
81.317  0.97219  5.5134e-07  -1.5294e-08  18.954  0  0  2.1
81.317  0.97001  5.4906e-07  -1.2279e-08  18.894  0  0  2.15
81.317  0.96778  5.4698e-07  -7.9256e-09  18.833  0  0  2.2
81.317  0.96555  5.4489e-07  -3.5724e-09  18.772  0  0  2.25
81.317  0.96332  5.4281e-07  7.8083e-10  18.711  0  0  2.3
81.317  0.96108  5.4072e-07  5.134e-09  18.65  0  0  2.35
81.317  0.95863  5.3649e-07  5.0937e-09  18.586  0  0  2.4
81.317  0.95612  5.3177e-07  4.0219e-09  18.52  0  0  2.45
81.317  0.95361  5.2704e-07  2.95e-09  18.455  0  0  2.5
81.317  0.9511  5.2231e-07  1.8781e-09  18.389  0  0  2.55
81.317  0.94859  5.1758e-07  8.0629e-10  18.323  0  0  2.6
81.317  0.94601  5.1268e-07  -1.6887e-11  18.257  0  0  2.65
81.317  0.94326  5.0746e-07  -3.6081e-10  18.188  0  0  2.7
81.317  0.94052  5.0224e-07  -7.0474e-10  18.119  0  0  2.75
81.317  0.93778  4.9702e-07  -1.0487e-09  18.05  0  0  2.8
81.317  0.93504  4.918e-07  -1.3926e-09  17.981  0  0  2.85
81.317  0.9323  4.8658e-07  -1.7365e-09  17.912  0  0  2.9
81.317  0.92952  4.8162e-07  -1.8618e-09  17.843  0  0  2.95
81.317  0.92661  4.7764e-07  -1.1173e-09  17.772  0  0  3
81.317  0.92369  4.7367e-07  -3.7276e-10  17.702  0  0  3.05
81.317  0.92078  4.6969e-07  3.7174e-10  17.631  0  0  3.1
81.317  0.91786  4.6572e-07  1.1162e-09  17.561  0  0  3.15
81.317  0.91495  4.6174e-07  1.8607e-09  17.49  0  0  3.2
81.317  0.91203  4.5777e-07  2.6052e-09  17.42  0  0  3.25
81.317  0.90906  4.5379e-07  2.5372e-09  17.349  0  0  3.3
81.317  0.90604  4.4981e-07  1.6364e-09  17.278  0  0  3.35
81.317  0.90301  4.4583e-07  7.3556e-10  17.207  0  0  3.4
81.317  0.89999  4.4185e-07  -1.6527e-10  17.136  0  0  3.45
81.317  0.89696  4.3787e-07  -1.0661e-09  17.065  0  0  3.5
81.317  0.89394  4.3389e-07  -1.9669e-09  16.994  0  0  3.55
81.317  0.89091  4.2991e-07  -2.8678e-09  16.923  0  0  3.6
81.317  0.88788  4.2596e-07  -3.6734e-09  16.853  0  0  3.65
81.317  0.88481  4.2216e-07  -4.0268e-09  16.783  0  0  3.7
81.317  0.88174  4.1837e-07  -4.3803e-09  16.713  0  0  3.75
81.317  0.87866  4.1458e-07  -4.7337e-09  16.643  0  0  3.8
81.317  0.87559  4.1078e-07  -5.0872e-09  16.573  0  0  3.85
81.317  0.87252  4.0699e-07  -5.4406e-09  16.504  0  0  3.9
81.317  0.86945  4.032e-07  -5.7941e-09  16.434  0  0  3.95
81.317  0.86637  3.994e-07  -6.1475e-09  16.364  0  0  4
81.317  0.8633  3.9605e-07  -6.3523e-09  16.295  0  0  4.05
81.317  0.86024  3.9457e-07  -5.9308e-09  16.227  0  0  4.1
81.317  0.85717  3.9309e-07  -5.5093e-09  16.159  0  0  4.15
81.317  0.8541  3.9161e-07  -5.0879e-09  16.091  0  0  4.2
81.317  0.85104  3.9013e-07  -4.6664e-09  16.023  0  0  4.25
81.317  0.84797  3.8864e-07  -4.2449e-09  15.955  0  0  4.3
81.317  0.8449  3.8716e-07  -3.8235e-09  15.887  0  0  4.35
81.317  0.84184  3.8568e-07  -3.402e-09  15.819  0  0  4.4
81.317  0.83877  3.842e-07  -2.9805e-09  15.751  0  0  4.45
81.317  0.83574  3.8234e-07  -2.4314e-09  15.684  0  0  4.5
81.317  0.83273  3.7991e-07  -2.4241e-09  15.619  0  0  4.55
81.317  0.82973  3.7748e-07  -2.4168e-09  15.554  0  0  4.6
81.317  0.82672  3.7505e-07  -2.4096e-09  15.489  0  0  4.65
81.317  0.82372  3.7262e-07  -2.4023e-09  15.424  0  0  4.7
81.317  0.82071  3.7019e-07  -2.395e-09  15.359  0  0  4.75
81.317  0.81771  3.6776e-07  -2.3878e-09  15.295  0  0  4.8
81.317  0.81471  3.6533e-07  -2.3805e-09  15.23  0  0  4.85
81.317  0.8117  3.629e-07  -2.3732e-09  15.165  0  0  4.9
81.317  0.8087  3.6047e-07  -2.3659e-09  15.1  0  0  4.95
81.317  0.80577  3.5825e-07  -2.3456e-09  15.037  0  0  5
81.317  0.80287  3.5612e-07  -2.3204e-09  14.976  0  0  5.05
81.317  0.79997  3.5398e-07  -2.2952e-09  14.915  0  0  5.1
81.317  0.79707  3.5185e-07  -2.27e-09  14.853  0  0  5.15
81.317  0.79417  3.4971e-07  -2.2448e-09  14.792  0  0  5.2
81.317  0.79127  3.4757e-07  -2.2196e-09  14.731  0  0  5.25
81.317  0.78837  3.4544e-07  -2.1944e-09  14.67  0  0  5.3
81.317  0.78547  3.433e-07  -2.1692e-09  14.608  0  0  5.35
81.317  0.78258  3.4117e-07  -2.144e-09  14.547  0  0  5.4
81.317  0.77968  3.3903e-07  -2.1188e-09  14.486  0  0  5.45
81.317  0.77679  3.3696e-07  -2.0716e-09  14.425  0  0  5.5
81.317  0.77402  3.3589e-07  -1.7e-09  14.367  0  0  5.55
81.317  0.77126  3.3482e-07  -1.3284e-09  14.31  0  0  5.6
81.317  0.7685  3.3374e-07  -9.5677e-10  14.253  0  0  5.65
81.317  0.76574  3.3267e-07  -5.8514e-10  14.195  0  0  5.7
81.317  0.76298  3.316e-07  -2.1351e-10  14.138  0  0  5.75
81.317  0.76022  3.3053e-07  1.5812e-10  14.081  0  0  5.8
81.317  0.75746  3.2946e-07  5.2974e-10  14.023  0  0  5.85
81.317  0.7547  3.2838e-07  9.0137e-10  13.966  0  0  5.9
81.317  0.75193  3.2731e-07  1.273e-09  13.909  0  0  5.95
81.317  0.74917  3.2624e-07  1.6446e-09  13.852  0  0  6
81.317  0.74641  3.2517e-07  2.0163e-09  13.794  0  0  6.05
81.317  0.74372  3.2357e-07  2.1875e-09  13.739  0  0  6.1
81.317  0.74112  3.2127e-07  2.0846e-09  13.686  0  0  6.15
81.317  0.73852  3.1896e-07  1.9818e-09  13.633  0  0  6.2
81.317  0.73593  3.1665e-07  1.8789e-09  13.58  0  0  6.25
81.317  0.73333  3.1435e-07  1.7761e-09  13.527  0  0  6.3
81.317  0.73073  3.1204e-07  1.6733e-09  13.474  0  0  6.35
81.317  0.72814  3.0973e-07  1.5704e-09  13.421  0  0  6.4
81.317  0.72554  3.0743e-07  1.4676e-09  13.369  0  0  6.45
81.317  0.72294  3.0512e-07  1.3647e-09  13.316  0  0  6.5
81.317  0.72034  3.0282e-07  1.2619e-09  13.263  0  0  6.55
81.317  0.71775  3.0051e-07  1.159e-09  13.21  0  0  6.6
81.317  0.71515  2.982e-07  1.0562e-09  13.157  0  0  6.65
81.317  0.71255  2.959e-07  9.5334e-10  13.104  0  0  6.7
81.317  0.71008  2.9471e-07  7.0494e-10  13.054  0  0  6.75
81.317  0.70766  2.9395e-07  4.0225e-10  13.006  0  0  6.8
81.317  0.70524  2.9318e-07  9.9568e-11  12.957  0  0  6.85
81.317  0.70281  2.9242e-07  -2.0312e-10  12.908  0  0  6.9
81.317  0.70039  2.9166e-07  -5.0581e-10  12.86  0  0  6.95
81.317  0.69797  2.9089e-07  -8.0849e-10  12.811  0  0  7
81.317  0.69555  2.9013e-07  -1.1112e-09  12.762  0  0  7.05
81.317  0.69312  2.8936e-07  -1.4139e-09  12.714  0  0  7.1
81.317  0.6907  2.886e-07  -1.7166e-09  12.665  0  0  7.15
81.317  0.68828  2.8783e-07  -2.0192e-09  12.616  0  0  7.2
81.317  0.68586  2.8707e-07  -2.3219e-09  12.568  0  0  7.25
81.317  0.68343  2.8631e-07  -2.6246e-09  12.519  0  0  7.3
81.317  0.68101  2.8554e-07  -2.9273e-09  12.47  0  0  7.35
81.317  0.67859  2.8478e-07  -3.23e-09  12.422  0  0  7.4
81.317  0.67634  2.8376e-07  -3.4036e-09  12.377  0  0  7.45
81.317  0.67411  2.8271e-07  -3.5625e-09  12.333  0  0  7.5
81.317  0.67189  2.8166e-07  -3.7215e-09  12.289  0  0  7.55
81.317  0.66966  2.806e-07  -3.8804e-09  12.245  0  0  7.6
81.317  0.66743  2.7955e-07  -4.0394e-09  12.201  0  0  7.65
81.317  0.6652  2.785e-07  -4.1983e-09  12.157  0  0  7.7
81.317  0.66297  2.7745e-07  -4.3573e-09  12.112  0  0  7.75
81.317  0.66074  2.764e-07  -4.5163e-09  12.068  0  0  7.8
81.317  0.65852  2.7535e-07  -4.6752e-09  12.024  0  0  7.85
81.317  0.65629  2.743e-07  -4.8342e-09  11.98  0  0  7.9
81.317  0.65406  2.7325e-07  -4.9931e-09  11.936  0  0  7.95
81.317  0.65183  2.722e-07  -5.1521e-09  11.892  0  0  8
81.317  0.6496  2.7115e-07  -5.3111e-09  11.848  0  0  8.05
81.317  0.64738  2.701e-07  -5.47e-09  11.804  0  0  8.1
81.317  0.64515  2.6905e-07  -5.629e-09  11.76  0  0  8.15
81.317  0.64299  2.6777e-07  -5.7052e-09  11.717  0  0  8.2
81.317  0.64096  2.6611e-07  -5.6391e-09  11.677  0  0  8.25
81.317  0.63893  2.6444e-07  -5.573e-09  11.638  0  0  8.3
81.317  0.63689  2.6277e-07  -5.507e-09  11.598  0  0  8.35
81.317  0.63486  2.6111e-07  -5.4409e-09  11.558  0  0  8.4
81.317  0.63283  2.5944e-07  -5.3748e-09  11.519  0  0  8.45
81.317  0.6308  2.5778e-07  -5.3088e-09  11.479  0  0  8.5
81.317  0.62876  2.5611e-07  -5.2427e-09  11.439  0  0  8.55
81.317  0.62673  2.5445e-07  -5.1766e-09  11.4  0  0  8.6
81.317  0.6247  2.5278e-07  -5.1106e-09  11.36  0  0  8.65
81.317  0.62267  2.5112e-07  -5.0445e-09  11.32  0  0  8.7
81.317  0.62063  2.4945e-07  -4.9784e-09  11.28  0  0  8.75
81.317  0.6186  2.4779e-07  -4.9124e-09  11.241  0  0  8.8
81.317  0.61657  2.4612e-07  -4.8463e-09  11.201  0  0  8.85
81.317  0.61454  2.4446e-07  -4.7802e-09  11.161  0  0  8.9
81.317  0.6125  2.4279e-07  -4.7141e-09  11.122  0  0  8.95
81.317  0.61047  2.4112e-07  -4.6481e-09  11.082  0  0  9
81.317  0.60852  2.4002e-07  -4.6937e-09  11.044  0  0  9.05
81.317  0.60668  2.3974e-07  -4.9038e-09  11.008  0  0  9.1
81.317  0.60484  2.3946e-07  -5.1138e-09  10.973  0  0  9.15
81.317  0.603  2.3918e-07  -5.3239e-09  10.937  0  0  9.2
81.317  0.60116  2.389e-07  -5.534e-09  10.902  0  0  9.25
81.317  0.59932  2.3862e-07  -5.744e-09  10.866  0  0  9.3
81.317  0.59748  2.3834e-07  -5.9541e-09  10.831  0  0  9.35
81.317  0.59564  2.3806e-07  -6.1642e-09  10.795  0  0  9.4
81.317  0.5938  2.3778e-07  -6.3742e-09  10.759  0  0  9.45
81.317  0.59196  2.375e-07  -6.5843e-09  10.724  0  0  9.5
81.317  0.59012  2.3722e-07  -6.7943e-09  10.688  0  0  9.55
81.317  0.58828  2.3694e-07  -7.0044e-09  10.653  0  0  9.6
81.317  0.58644  2.3666e-07  -7.2145e-09  10.617  0  0  9.65
81.317  0.5846  2.3638e-07  -7.4245e-09  10.582  0  0  9.7
81.317  0.58276  2.361e-07  -7.6346e-09  10.546  0  0  9.75
81.317  0.58092  2.3582e-07  -7.8447e-09  10.511  0  0  9.8
81.317  0.57908  2.3554e-07  -8.0547e-09  10.475  0  0  9.85
81.317  0.57724  2.3526e-07  -8.2648e-09  10.439  0  0  9.9
81.317  0.5754  2.3498e-07  -8.4749e-09  10.404  0  0  9.95
81.317  0.57372  2.342e-07  -8.1876e-09  10.372  0  0  10
81.317  0.57207  2.3336e-07  -7.8398e-09  10.34  0  0  10.05
81.317  0.57042  2.3252e-07  -7.492e-09  10.309  0  0  10.1
81.317  0.56877  2.3168e-07  -7.1442e-09  10.277  0  0  10.15
81.317  0.56711  2.3084e-07  -6.7964e-09  10.245  0  0  10.2
81.317  0.56546  2.2999e-07  -6.4486e-09  10.214  0  0  10.25
81.317  0.56381  2.2915e-07  -6.1008e-09  10.182  0  0  10.3
81.317  0.56215  2.2831e-07  -5.753e-09  10.151  0  0  10.35
81.317  0.5605  2.2747e-07  -5.4052e-09  10.119  0  0  10.4
81.317  0.55885  2.2663e-07  -5.0574e-09  10.087  0  0  10.45
81.317  0.55719  2.2579e-07  -4.7096e-09  10.056  0  0  10.5
81.317  0.55554  2.2494e-07  -4.3618e-09  10.024  0  0  10.55
81.317  0.55389  2.241e-07  -4.014e-09  9.9927  0  0  10.6
81.317  0.55223  2.2326e-07  -3.6662e-09  9.9611  0  0  10.65
81.317  0.55058  2.2242e-07  -3.3184e-09  9.9295  0  0  10.7
81.317  0.54893  2.2158e-07  -2.9706e-09  9.8979  0  0  10.75
81.317  0.54728  2.2074e-07  -2.6228e-09  9.8663  0  0  10.8
81.317  0.54562  2.1989e-07  -2.275e-09  9.8347  0  0  10.85
81.317  0.54397  2.1905e-07  -1.9272e-09  9.8031  0  0  10.9
81.317  0.54232  2.1821e-07  -1.5794e-09  9.7715  0  0  10.95
81.317  0.54079  2.1714e-07  -1.5265e-09  9.7424  0  0  11
81.317  0.53931  2.1598e-07  -1.5977e-09  9.7143  0  0  11.05
81.317  0.53783  2.1482e-07  -1.669e-09  9.6863  0  0  11.1
81.317  0.53635  2.1366e-07  -1.7402e-09  9.6582  0  0  11.15
81.317  0.53487  2.125e-07  -1.8114e-09  9.6302  0  0  11.2
81.317  0.53339  2.1133e-07  -1.8827e-09  9.6021  0  0  11.25
81.317  0.53191  2.1017e-07  -1.9539e-09  9.5741  0  0  11.3
81.317  0.53043  2.0901e-07  -2.0252e-09  9.546  0  0  11.35
81.317  0.52895  2.0785e-07  -2.0964e-09  9.518  0  0  11.4
81.317  0.52747  2.0669e-07  -2.1676e-09  9.4899  0  0  11.45
81.317  0.52599  2.0552e-07  -2.2389e-09  9.4619  0  0  11.5
81.317  0.52451  2.0436e-07  -2.3101e-09  9.4338  0  0  11.55
81.317  0.52303  2.032e-07  -2.3813e-09  9.4058  0  0  11.6
81.317  0.52155  2.0204e-07  -2.4526e-09  9.3777  0  0  11.65
81.317  0.52007  2.0088e-07  -2.5238e-09  9.3497  0  0  11.7
81.317  0.51859  1.9971e-07  -2.595e-09  9.3216  0  0  11.75
81.317  0.51711  1.9855e-07  -2.6663e-09  9.2936  0  0  11.8
81.317  0.51563  1.9739e-07  -2.7375e-09  9.2655  0  0  11.85
81.317  0.51415  1.9623e-07  -2.8088e-09  9.2374  0  0  11.9
81.317  0.51267  1.9507e-07  -2.88e-09  9.2094  0  0  11.95
81.317  0.51119  1.9391e-07  -2.9512e-09  9.1813  0  0  12
81.317  0.50971  1.9274e-07  -3.0225e-09  9.1533  0  0  12.05
81.317  0.50835  1.92e-07  -2.8032e-09  9.1277  0  0  12.1
81.317  0.50704  1.9143e-07  -2.4651e-09  9.103  0  0  12.15
81.317  0.50573  1.9087e-07  -2.1269e-09  9.0784  0  0  12.2
81.317  0.50442  1.903e-07  -1.7888e-09  9.0538  0  0  12.25
81.317  0.50311  1.8973e-07  -1.4507e-09  9.0292  0  0  12.3
81.317  0.5018  1.8916e-07  -1.1125e-09  9.0045  0  0  12.35
81.317  0.50049  1.8859e-07  -7.744e-10  8.9799  0  0  12.4
81.317  0.49918  1.8803e-07  -4.3626e-10  8.9553  0  0  12.45
81.317  0.49787  1.8746e-07  -9.8121e-11  8.9307  0  0  12.5
81.317  0.49656  1.8689e-07  2.4002e-10  8.9061  0  0  12.55
81.317  0.49525  1.8632e-07  5.7815e-10  8.8814  0  0  12.6
81.317  0.49394  1.8575e-07  9.1628e-10  8.8568  0  0  12.65
81.317  0.49263  1.8518e-07  1.2544e-09  8.8322  0  0  12.7
81.317  0.49132  1.8462e-07  1.5926e-09  8.8076  0  0  12.75
81.317  0.49001  1.8405e-07  1.9307e-09  8.7829  0  0  12.8
81.317  0.4887  1.8348e-07  2.2688e-09  8.7583  0  0  12.85
81.317  0.48739  1.8291e-07  2.607e-09  8.7337  0  0  12.9
81.317  0.48608  1.8234e-07  2.9451e-09  8.7091  0  0  12.95
81.317  0.48477  1.8177e-07  3.2832e-09  8.6844  0  0  13
81.317  0.48346  1.8121e-07  3.6214e-09  8.6598  0  0  13.05
81.317  0.48215  1.8064e-07  3.9595e-09  8.6352  0  0  13.1
81.317  0.48084  1.8007e-07  4.2976e-09  8.6106  0  0  13.15
81.317  0.47953  1.795e-07  4.6358e-09  8.5859  0  0  13.2
81.317  0.47822  1.7893e-07  4.9739e-09  8.5613  0  0  13.25
81.317  0.47691  1.7837e-07  5.3052e-09  8.5367  0  0  13.3
81.317  0.47576  1.7803e-07  5.0031e-09  8.5152  0  0  13.35
81.317  0.47461  1.7768e-07  4.7009e-09  8.4937  0  0  13.4
81.317  0.47345  1.7734e-07  4.3988e-09  8.4722  0  0  13.45
81.317  0.4723  1.77e-07  4.0966e-09  8.4506  0  0  13.5
81.317  0.47114  1.7666e-07  3.7945e-09  8.4291  0  0  13.55
81.317  0.46999  1.7632e-07  3.4923e-09  8.4076  0  0  13.6
81.317  0.46883  1.7598e-07  3.1901e-09  8.386  0  0  13.65
81.317  0.46768  1.7564e-07  2.888e-09  8.3645  0  0  13.7
81.317  0.46653  1.753e-07  2.5858e-09  8.343  0  0  13.75
81.317  0.46537  1.7496e-07  2.2837e-09  8.3215  0  0  13.8
81.317  0.46422  1.7461e-07  1.9815e-09  8.2999  0  0  13.85
81.317  0.46306  1.7427e-07  1.6794e-09  8.2784  0  0  13.9
81.317  0.46191  1.7393e-07  1.3772e-09  8.2569  0  0  13.95
81.317  0.46075  1.7359e-07  1.0751e-09  8.2354  0  0  14
81.317  0.4596  1.7325e-07  7.729e-10  8.2138  0  0  14.05
81.317  0.45845  1.7291e-07  4.7074e-10  8.1923  0  0  14.1
81.317  0.45729  1.7257e-07  1.6859e-10  8.1708  0  0  14.15
81.317  0.45614  1.7223e-07  -1.3357e-10  8.1492  0  0  14.2
81.317  0.45498  1.7189e-07  -4.3572e-10  8.1277  0  0  14.25
81.317  0.45383  1.7154e-07  -7.3788e-10  8.1062  0  0  14.3
81.317  0.45267  1.712e-07  -1.04e-09  8.0847  0  0  14.35
81.317  0.45152  1.7086e-07  -1.3422e-09  8.0631  0  0  14.4
81.317  0.45037  1.7052e-07  -1.6443e-09  8.0416  0  0  14.45
81.317  0.44921  1.7018e-07  -1.9465e-09  8.0201  0  0  14.5
81.317  0.44806  1.6984e-07  -2.2487e-09  7.9986  0  0  14.55
81.317  0.4469  1.695e-07  -2.5508e-09  7.977  0  0  14.6
81.317  0.44575  1.6914e-07  -2.8434e-09  7.9556  0  0  14.65
81.317  0.44474  1.6845e-07  -2.8601e-09  7.9368  0  0  14.7
81.317  0.44373  1.6776e-07  -2.8769e-09  7.9181  0  0  14.75
81.317  0.44271  1.6706e-07  -2.8937e-09  7.8993  0  0  14.8
81.317  0.4417  1.6637e-07  -2.9104e-09  7.8806  0  0  14.85
81.317  0.44069  1.6567e-07  -2.9272e-09  7.8618  0  0  14.9
81.317  0.43968  1.6498e-07  -2.9439e-09  7.8431  0  0  14.95
81.317  0.43866  1.6428e-07  -2.9607e-09  7.8243  0  0  15
81.317  0.43765  1.6359e-07  -2.9775e-09  7.8055  0  0  15.05
81.317  0.43664  1.6289e-07  -2.9942e-09  7.7868  0  0  15.1
81.317  0.43563  1.622e-07  -3.011e-09  7.768  0  0  15.15
81.317  0.43461  1.615e-07  -3.0278e-09  7.7493  0  0  15.2
81.317  0.4336  1.6081e-07  -3.0445e-09  7.7305  0  0  15.25
81.317  0.43259  1.6011e-07  -3.0613e-09  7.7118  0  0  15.3
81.317  0.43158  1.5942e-07  -3.0781e-09  7.693  0  0  15.35
81.317  0.43056  1.5872e-07  -3.0948e-09  7.6742  0  0  15.4
81.317  0.42955  1.5803e-07  -3.1116e-09  7.6555  0  0  15.45
81.317  0.42854  1.5733e-07  -3.1283e-09  7.6367  0  0  15.5
81.317  0.42753  1.5664e-07  -3.1451e-09  7.618  0  0  15.55
81.317  0.42651  1.5594e-07  -3.1619e-09  7.5992  0  0  15.6
81.317  0.4255  1.5525e-07  -3.1786e-09  7.5805  0  0  15.65
81.317  0.42449  1.5455e-07  -3.1954e-09  7.5617  0  0  15.7
81.317  0.42348  1.5386e-07  -3.2122e-09  7.5429  0  0  15.75
81.317  0.42246  1.5316e-07  -3.2289e-09  7.5242  0  0  15.8
81.317  0.42145  1.5247e-07  -3.2457e-09  7.5054  0  0  15.85
81.317  0.42044  1.5177e-07  -3.2624e-09  7.4867  0  0  15.9
81.317  0.41943  1.5108e-07  -3.2792e-09  7.4679  0  0  15.95
81.317  0.41841  1.5038e-07  -3.296e-09  7.4492  0  0  16
81.317  0.4174  1.4969e-07  -3.3127e-09  7.4304  0  0  16.05
81.317  0.41639  1.4899e-07  -3.3295e-09  7.4116  0  0  16.1
81.317  0.41545  1.4856e-07  -3.1807e-09  7.3944  0  0  16.15
81.317  0.41457  1.4832e-07  -2.9178e-09  7.3781  0  0  16.2
81.317  0.41368  1.4808e-07  -2.6549e-09  7.3618  0  0  16.25
81.317  0.4128  1.4784e-07  -2.3919e-09  7.3455  0  0  16.3
81.317  0.41191  1.476e-07  -2.129e-09  7.3293  0  0  16.35
81.317  0.41103  1.4736e-07  -1.8661e-09  7.313  0  0  16.4
81.317  0.41015  1.4712e-07  -1.6031e-09  7.2967  0  0  16.45
81.317  0.40926  1.4687e-07  -1.3402e-09  7.2805  0  0  16.5
81.317  0.40838  1.4663e-07  -1.0772e-09  7.2642  0  0  16.55
81.317  0.40749  1.4639e-07  -8.1429e-10  7.2479  0  0  16.6
81.317  0.40661  1.4615e-07  -5.5136e-10  7.2317  0  0  16.65
81.317  0.40573  1.4591e-07  -2.8841e-10  7.2154  0  0  16.7
81.317  0.40484  1.4567e-07  -2.5476e-11  7.1991  0  0  16.75
81.317  0.40396  1.4543e-07  2.3746e-10  7.1828  0  0  16.8
81.317  0.40307  1.4518e-07  5.004e-10  7.1666  0  0  16.85
81.317  0.40219  1.4494e-07  7.6334e-10  7.1503  0  0  16.9
81.317  0.4013  1.447e-07  1.0263e-09  7.134  0  0  16.95
81.317  0.40042  1.4446e-07  1.2892e-09  7.1178  0  0  17
81.317  0.39954  1.4422e-07  1.5522e-09  7.1015  0  0  17.05
81.317  0.39865  1.4398e-07  1.8151e-09  7.0852  0  0  17.1
81.317  0.39777  1.4374e-07  2.078e-09  7.069  0  0  17.15
81.317  0.39688  1.4349e-07  2.341e-09  7.0527  0  0  17.2
81.317  0.396  1.4325e-07  2.6039e-09  7.0364  0  0  17.25
81.317  0.39512  1.4301e-07  2.8669e-09  7.0201  0  0  17.3
81.317  0.39423  1.4277e-07  3.1298e-09  7.0039  0  0  17.35
81.317  0.39335  1.4253e-07  3.3927e-09  6.9876  0  0  17.4
81.317  0.39246  1.4229e-07  3.6557e-09  6.9713  0  0  17.45
81.317  0.39158  1.4205e-07  3.9186e-09  6.9551  0  0  17.5
81.317  0.39069  1.418e-07  4.1815e-09  6.9388  0  0  17.55
81.317  0.38981  1.4156e-07  4.4445e-09  6.9225  0  0  17.6
81.317  0.38893  1.4132e-07  4.7074e-09  6.9063  0  0  17.65
81.317  0.38804  1.4108e-07  4.9704e-09  6.89  0  0  17.7
81.317  0.38721  1.4073e-07  5.008e-09  6.8748  0  0  17.75
81.317  0.38644  1.4025e-07  4.8082e-09  6.8607  0  0  17.8
81.317  0.38567  1.3978e-07  4.6083e-09  6.8465  0  0  17.85
81.317  0.3849  1.3931e-07  4.4084e-09  6.8324  0  0  17.9
81.317  0.38413  1.3883e-07  4.2085e-09  6.8183  0  0  17.95
81.317  0.38336  1.3836e-07  4.0087e-09  6.8042  0  0  18
81.317  0.38258  1.3789e-07  3.8088e-09  6.7901  0  0  18.05
81.317  0.38181  1.3742e-07  3.6089e-09  6.776  0  0  18.1
81.317  0.38104  1.3694e-07  3.409e-09  6.7618  0  0  18.15
81.317  0.38027  1.3647e-07  3.2091e-09  6.7477  0  0  18.2
81.317  0.3795  1.36e-07  3.0093e-09  6.7336  0  0  18.25
81.317  0.37873  1.3553e-07  2.8094e-09  6.7195  0  0  18.3
81.317  0.37796  1.3505e-07  2.6095e-09  6.7054  0  0  18.35
81.317  0.37718  1.3458e-07  2.4096e-09  6.6913  0  0  18.4
81.317  0.37641  1.3411e-07  2.2098e-09  6.6772  0  0  18.45
81.317  0.37564  1.3363e-07  2.0099e-09  6.663  0  0  18.5
81.317  0.37487  1.3316e-07  1.81e-09  6.6489  0  0  18.55
81.317  0.3741  1.3269e-07  1.6101e-09  6.6348  0  0  18.6
81.317  0.37333  1.3222e-07  1.4103e-09  6.6207  0  0  18.65
81.317  0.37255  1.3174e-07  1.2104e-09  6.6066  0  0  18.7
81.317  0.37178  1.3127e-07  1.0105e-09  6.5925  0  0  18.75
81.317  0.37101  1.308e-07  8.1064e-10  6.5784  0  0  18.8
81.317  0.37024  1.3033e-07  6.1076e-10  6.5642  0  0  18.85
81.317  0.36947  1.2985e-07  4.1089e-10  6.5501  0  0  18.9
81.317  0.3687  1.2938e-07  2.1101e-10  6.536  0  0  18.95
81.317  0.36793  1.2891e-07  1.1134e-11  6.5219  0  0  19
81.317  0.36715  1.2843e-07  -1.8874e-10  6.5078  0  0  19.05
81.317  0.36638  1.2796e-07  -3.8862e-10  6.4937  0  0  19.1
81.317  0.36561  1.2749e-07  -5.8849e-10  6.4796  0  0  19.15
81.317  0.36484  1.2702e-07  -7.8837e-10  6.4654  0  0  19.2
81.317  0.36407  1.2654e-07  -9.8825e-10  6.4513  0  0  19.25
81.317  0.3633  1.2607e-07  -1.1881e-09  6.4372  0  0  19.3
81.317  0.36253  1.256e-07  -1.388e-09  6.4231  0  0  19.35
81.317  0.36175  1.2513e-07  -1.5879e-09  6.409  0  0  19.4
81.317  0.36098  1.2465e-07  -1.7878e-09  6.3949  0  0  19.45
81.317  0.36026  1.2438e-07  -1.8172e-09  6.3818  0  0  19.5
81.317  0.3596  1.243e-07  -1.6823e-09  6.3696  0  0  19.55
81.317  0.35893  1.2423e-07  -1.5473e-09  6.3575  0  0  19.6
81.317  0.35826  1.2415e-07  -1.4124e-09  6.3453  0  0  19.65
81.317  0.3576  1.2408e-07  -1.2774e-09  6.3332  0  0  19.7
81.317  0.35693  1.24e-07  -1.1424e-09  6.3211  0  0  19.75
81.317  0.35626  1.2392e-07  -1.0075e-09  6.3089  0  0  19.8
81.317  0.3556  1.2385e-07  -8.7251e-10  6.2968  0  0  19.85
81.317  0.35493  1.2377e-07  -7.3755e-10  6.2847  0  0  19.9
81.317  0.35426  1.2369e-07  -6.0259e-10  6.2725  0  0  19.95
81.317  0.3536  1.2362e-07  -4.6763e-10  6.2604  0  0  20
81.317  0.35293  1.2354e-07  -3.3267e-10  6.2482  0  0  20.05
81.317  0.35226  1.2346e-07  -1.977e-10  6.2361  0  0  20.1
81.317  0.3516  1.2339e-07  -6.2741e-11  6.224  0  0  20.15
81.317  0.35093  1.2331e-07  7.2224e-11  6.2118  0  0  20.2
81.317  0.35026  1.2323e-07  2.0718e-10  6.1997  0  0  20.25
81.317  0.3496  1.2316e-07  3.4214e-10  6.1875  0  0  20.3
81.317  0.34893  1.2308e-07  4.7711e-10  6.1754  0  0  20.35
81.317  0.34826  1.23e-07  6.1207e-10  6.1633  0  0  20.4
81.317  0.3476  1.2293e-07  7.4703e-10  6.1511  0  0  20.45
81.317  0.34693  1.2285e-07  8.8199e-10  6.139  0  0  20.5
81.317  0.34626  1.2278e-07  1.017e-09  6.1269  0  0  20.55
81.317  0.3456  1.227e-07  1.1519e-09  6.1147  0  0  20.6
81.317  0.34493  1.2262e-07  1.2869e-09  6.1026  0  0  20.65
81.317  0.34426  1.2255e-07  1.4218e-09  6.0904  0  0  20.7
81.317  0.3436  1.2247e-07  1.5568e-09  6.0783  0  0  20.75
81.317  0.34293  1.2239e-07  1.6918e-09  6.0662  0  0  20.8
81.317  0.34226  1.2232e-07  1.8267e-09  6.054  0  0  20.85
81.317  0.3416  1.2224e-07  1.9617e-09  6.0419  0  0  20.9
81.317  0.34093  1.2216e-07  2.0967e-09  6.0298  0  0  20.95
81.317  0.34026  1.2209e-07  2.2316e-09  6.0176  0  0  21
81.317  0.3396  1.2201e-07  2.3666e-09  6.0055  0  0  21.05
81.317  0.33893  1.2193e-07  2.5015e-09  5.9933  0  0  21.1
81.317  0.33826  1.2186e-07  2.6365e-09  5.9812  0  0  21.15
81.317  0.3376  1.2178e-07  2.7715e-09  5.9691  0  0  21.2
81.317  0.33693  1.217e-07  2.9064e-09  5.9569  0  0  21.25
81.317  0.33626  1.2163e-07  3.0414e-09  5.9448  0  0  21.3
81.317  0.3356  1.2155e-07  3.1763e-09  5.9327  0  0  21.35
81.317  0.33493  1.2148e-07  3.3113e-09  5.9205  0  0  21.4
81.317  0.33429  1.2133e-07  3.3497e-09  5.9088  0  0  21.45
81.317  0.33371  1.2095e-07  3.0639e-09  5.8984  0  0  21.5
81.317  0.33314  1.2057e-07  2.778e-09  5.888  0  0  21.55
81.317  0.33256  1.2019e-07  2.4922e-09  5.8775  0  0  21.6
81.317  0.33199  1.1981e-07  2.2063e-09  5.8671  0  0  21.65
81.317  0.33141  1.1943e-07  1.9204e-09  5.8567  0  0  21.7
81.317  0.33084  1.1905e-07  1.6346e-09  5.8463  0  0  21.75
81.317  0.33026  1.1867e-07  1.3487e-09  5.8359  0  0  21.8
81.317  0.32969  1.1829e-07  1.0629e-09  5.8255  0  0  21.85
81.317  0.32911  1.1791e-07  7.7703e-10  5.8151  0  0  21.9
81.317  0.32854  1.1753e-07  4.9117e-10  5.8047  0  0  21.95
81.317  0.32796  1.1716e-07  2.0532e-10  5.7943  0  0  22
81.317  0.32739  1.1678e-07  -8.0526e-11  5.7838  0  0  22.05
81.317  0.32681  1.164e-07  -3.6639e-10  5.7734  0  0  22.1
81.317  0.32624  1.1602e-07  -6.5224e-10  5.763  0  0  22.15
81.317  0.32566  1.1564e-07  -9.381e-10  5.7526  0  0  22.2
81.317  0.32509  1.1526e-07  -1.2239e-09  5.7422  0  0  22.25
81.317  0.32451  1.1488e-07  -1.5098e-09  5.7318  0  0  22.3
81.317  0.32394  1.145e-07  -1.7957e-09  5.7214  0  0  22.35
81.317  0.32336  1.1412e-07  -2.0815e-09  5.711  0  0  22.4
81.317  0.32279  1.1374e-07  -2.3674e-09  5.7006  0  0  22.45
81.317  0.32221  1.1336e-07  -2.6532e-09  5.6902  0  0  22.5
81.317  0.32164  1.1298e-07  -2.9391e-09  5.6797  0  0  22.55
81.317  0.32106  1.126e-07  -3.2249e-09  5.6693  0  0  22.6
81.317  0.32049  1.1222e-07  -3.5108e-09  5.6589  0  0  22.65
81.317  0.31991  1.1184e-07  -3.7966e-09  5.6485  0  0  22.7
81.317  0.31934  1.1146e-07  -4.0825e-09  5.6381  0  0  22.75
81.317  0.31876  1.1108e-07  -4.3683e-09  5.6277  0  0  22.8
81.317  0.31819  1.1071e-07  -4.6542e-09  5.6173  0  0  22.85
81.317  0.31761  1.1033e-07  -4.94e-09  5.6069  0  0  22.9
81.317  0.31704  1.0995e-07  -5.2259e-09  5.5965  0  0  22.95
81.317  0.31646  1.0957e-07  -5.5118e-09  5.5861  0  0  23
81.317  0.31589  1.0919e-07  -5.7976e-09  5.5756  0  0  23.05
81.317  0.31532  1.0881e-07  -6.0835e-09  5.5652  0  0  23.1
81.317  0.31474  1.0843e-07  -6.3693e-09  5.5548  0  0  23.15
81.317  0.31417  1.0805e-07  -6.6552e-09  5.5444  0  0  23.2
81.317  0.31359  1.0767e-07  -6.941e-09  5.534  0  0  23.25
81.317  0.31302  1.0729e-07  -7.2269e-09  5.5236  0  0  23.3
81.317  0.31244  1.0691e-07  -7.5127e-09  5.5132  0  0  23.35
81.317  0.31187  1.0653e-07  -7.7986e-09  5.5028  0  0  23.4
81.317  0.31129  1.0615e-07  -8.0844e-09  5.4924  0  0  23.45
81.317  0.31072  1.0577e-07  -8.3703e-09  5.4819  0  0  23.5
81.317  0.31014  1.0539e-07  -8.6561e-09  5.4715  0  0  23.55
81.317  0.30959  1.0503e-07  -8.8089e-09  5.4616  0  0  23.6
81.317  0.3091  1.0472e-07  -8.6878e-09  5.4527  0  0  23.65
81.317  0.3086  1.044e-07  -8.5668e-09  5.4438  0  0  23.7
81.317  0.30811  1.0408e-07  -8.4457e-09  5.4349  0  0  23.75
81.317  0.30762  1.0377e-07  -8.3247e-09  5.426  0  0  23.8
81.317  0.30712  1.0345e-07  -8.2036e-09  5.4171  0  0  23.85
81.317  0.30663  1.0313e-07  -8.0826e-09  5.4081  0  0  23.9
81.317  0.30613  1.0282e-07  -7.9615e-09  5.3992  0  0  23.95
81.317  0.30564  1.025e-07  -7.8404e-09  5.3903  0  0  24
81.317  0.30514  1.0218e-07  -7.7194e-09  5.3814  0  0  24.05
81.317  0.30465  1.0186e-07  -7.5983e-09  5.3725  0  0  24.1
81.317  0.30415  1.0155e-07  -7.4773e-09  5.3636  0  0  24.15
81.317  0.30366  1.0123e-07  -7.3562e-09  5.3547  0  0  24.2
81.317  0.30317  1.0091e-07  -7.2352e-09  5.3458  0  0  24.25
81.317  0.30267  1.006e-07  -7.1141e-09  5.3369  0  0  24.3
81.317  0.30218  1.0028e-07  -6.993e-09  5.3279  0  0  24.35
81.317  0.30168  9.9963e-08  -6.872e-09  5.319  0  0  24.4
81.317  0.30119  9.9646e-08  -6.7509e-09  5.3101  0  0  24.45
81.317  0.30069  9.9329e-08  -6.6299e-09  5.3012  0  0  24.5
81.317  0.3002  9.9012e-08  -6.5088e-09  5.2923  0  0  24.55
81.317  0.29971  9.8695e-08  -6.3877e-09  5.2834  0  0  24.6
81.317  0.29921  9.8378e-08  -6.2667e-09  5.2745  0  0  24.65
81.317  0.29872  9.8061e-08  -6.1456e-09  5.2656  0  0  24.7
81.317  0.29822  9.7745e-08  -6.0246e-09  5.2567  0  0  24.75
81.317  0.29773  9.7428e-08  -5.9035e-09  5.2477  0  0  24.8